data_ITQ-29

_audit_creation_method RASPA-1.0
_audit_creation_date 2019-10-9
_audit_author_name ''

_citation_author_name        'A. Corma, F. Rey, J. Rius, M.J. Sabater, and S. Valencia'
_citation_title              'Supramolecular self-assembled molecules as organic directing agent for synthesis of zeolites'
_citation_journal_abbrev     'Nature'
_citation_journal_volume     431
_citation_page_first         287
_citation_page_last          290
_citation_year               2004

_cell_length_a    23.7342
_cell_length_b    23.7342
_cell_length_c    23.7342
_cell_angle_alpha 90
_cell_angle_beta  90
_cell_angle_gamma 90
_cell_volume      13369.8

_symmetry_cell_setting          cubic
_symmetry_space_group_name_Hall 'P 1'
_symmetry_space_group_name_H-M  'P 1'
_symmetry_Int_Tables_number     1

_symmetry_equiv_pos_as_xyz 'x,y,z'

loop_
_atom_site_label
_atom_site_type_symbol
_atom_site_fract_x
_atom_site_fract_y
_atom_site_fract_z
_atom_site_charge
Si       Si4+   0.184150000000     0.092350000000     0.000000000000     2.05       
O        O2-    0.250000000000     0.108950000000     0.000000000000    -1.025      
O        O2-    0.146950000000     0.146950000000     0.000000000000    -1.025      
O        O2-    0.171450000000     0.054900000000     0.054900000000    -1.025      
Si       Si4+   0.407650000000     0.184150000000     0.000000000000     2.05       
O        O2-    0.391050000000     0.250000000000     0.000000000000    -1.025      
O        O2-    0.353050000000     0.146950000000     0.000000000000    -1.025      
O        O2-    0.445100000000     0.171450000000     0.054900000000    -1.025      
Si       Si4+   0.315850000000     0.407650000000     0.000000000000     2.05       
O        O2-    0.250000000000     0.391050000000     0.000000000000    -1.025      
O        O2-    0.353050000000     0.353050000000     0.000000000000    -1.025      
O        O2-    0.328550000000     0.445100000000     0.054900000000    -1.025      
Si       Si4+   0.092350000000     0.315850000000     0.000000000000     2.05       
O        O2-    0.108950000000     0.250000000000     0.000000000000    -1.025      
O        O2-    0.146950000000     0.353050000000     0.000000000000    -1.025      
O        O2-    0.054900000000     0.328550000000     0.054900000000    -1.025      
Si       Si4+   0.184150000000     0.407650000000     0.000000000000     2.05       
O        O2-    0.171450000000     0.445100000000     0.445100000000    -1.025      
Si       Si4+   0.092350000000     0.184150000000     0.000000000000     2.05       
O        O2-    0.054900000000     0.171450000000     0.445100000000    -1.025      
Si       Si4+   0.315850000000     0.092350000000     0.000000000000     2.05       
O        O2-    0.328550000000     0.054900000000     0.445100000000    -1.025      
Si       Si4+   0.407650000000     0.315850000000     0.000000000000     2.05       
O        O2-    0.445100000000     0.328550000000     0.445100000000    -1.025      
Si       Si4+   0.000000000000     0.184150000000     0.092350000000     2.05       
O        O2-    0.000000000000     0.250000000000     0.108950000000    -1.025      
O        O2-    0.000000000000     0.146950000000     0.146950000000    -1.025      
O        O2-    0.054900000000     0.171450000000     0.054900000000    -1.025      
Si       Si4+   0.315850000000     0.000000000000     0.092350000000     2.05       
O        O2-    0.250000000000     0.000000000000     0.108950000000    -1.025      
O        O2-    0.353050000000     0.000000000000     0.146950000000    -1.025      
O        O2-    0.328550000000     0.054900000000     0.054900000000    -1.025      
Si       Si4+   0.000000000000     0.315850000000     0.092350000000     2.05       
O        O2-    0.000000000000     0.353050000000     0.146950000000    -1.025      
O        O2-    0.445100000000     0.328550000000     0.054900000000    -1.025      
Si       Si4+   0.184150000000     0.000000000000     0.092350000000     2.05       
O        O2-    0.146950000000     0.000000000000     0.146950000000    -1.025      
O        O2-    0.171450000000     0.445100000000     0.054900000000    -1.025      
Si       Si4+   0.000000000000     0.315850000000     0.407650000000     2.05       
O        O2-    0.000000000000     0.250000000000     0.391050000000    -1.025      
O        O2-    0.000000000000     0.353050000000     0.353050000000    -1.025      
O        O2-    0.054900000000     0.328550000000     0.445100000000    -1.025      
Si       Si4+   0.184150000000     0.000000000000     0.407650000000     2.05       
O        O2-    0.250000000000     0.000000000000     0.391050000000    -1.025      
O        O2-    0.146950000000     0.000000000000     0.353050000000    -1.025      
O        O2-    0.171450000000     0.054900000000     0.445100000000    -1.025      
Si       Si4+   0.000000000000     0.184150000000     0.407650000000     2.05       
O        O2-    0.000000000000     0.146950000000     0.353050000000    -1.025      
O        O2-    0.445100000000     0.171450000000     0.445100000000    -1.025      
Si       Si4+   0.315850000000     0.000000000000     0.407650000000     2.05       
O        O2-    0.353050000000     0.000000000000     0.353050000000    -1.025      
O        O2-    0.328550000000     0.445100000000     0.445100000000    -1.025      
Si       Si4+   0.092350000000     0.000000000000     0.184150000000     2.05       
O        O2-    0.108950000000     0.000000000000     0.250000000000    -1.025      
O        O2-    0.054900000000     0.054900000000     0.171450000000    -1.025      
Si       Si4+   0.092350000000     0.000000000000     0.315850000000     2.05       
O        O2-    0.054900000000     0.445100000000     0.328550000000    -1.025      
Si       Si4+   0.000000000000     0.092350000000     0.315850000000     2.05       
O        O2-    0.000000000000     0.108950000000     0.250000000000    -1.025      
O        O2-    0.054900000000     0.054900000000     0.328550000000    -1.025      
Si       Si4+   0.407650000000     0.000000000000     0.315850000000     2.05       
O        O2-    0.391050000000     0.000000000000     0.250000000000    -1.025      
O        O2-    0.445100000000     0.054900000000     0.328550000000    -1.025      
Si       Si4+   0.000000000000     0.407650000000     0.315850000000     2.05       
O        O2-    0.000000000000     0.391050000000     0.250000000000    -1.025      
O        O2-    0.445100000000     0.445100000000     0.328550000000    -1.025      
Si       Si4+   0.407650000000     0.000000000000     0.184150000000     2.05       
O        O2-    0.445100000000     0.445100000000     0.171450000000    -1.025      
Si       Si4+   0.000000000000     0.407650000000     0.184150000000     2.05       
O        O2-    0.054900000000     0.445100000000     0.171450000000    -1.025      
Si       Si4+   0.000000000000     0.092350000000     0.184150000000     2.05       
O        O2-    0.445100000000     0.054900000000     0.171450000000    -1.025      
Si       Si4+   0.184150000000     0.092350000000     0.500000000000     2.05       
O        O2-    0.250000000000     0.108950000000     0.500000000000    -1.025      
O        O2-    0.146950000000     0.146950000000     0.500000000000    -1.025      
O        O2-    0.171450000000     0.054900000000     0.554900000000    -1.025      
Si       Si4+   0.407650000000     0.184150000000     0.500000000000     2.05       
O        O2-    0.391050000000     0.250000000000     0.500000000000    -1.025      
O        O2-    0.353050000000     0.146950000000     0.500000000000    -1.025      
O        O2-    0.445100000000     0.171450000000     0.554900000000    -1.025      
Si       Si4+   0.315850000000     0.407650000000     0.500000000000     2.05       
O        O2-    0.250000000000     0.391050000000     0.500000000000    -1.025      
O        O2-    0.353050000000     0.353050000000     0.500000000000    -1.025      
O        O2-    0.328550000000     0.445100000000     0.554900000000    -1.025      
Si       Si4+   0.092350000000     0.315850000000     0.500000000000     2.05       
O        O2-    0.108950000000     0.250000000000     0.500000000000    -1.025      
O        O2-    0.146950000000     0.353050000000     0.500000000000    -1.025      
O        O2-    0.054900000000     0.328550000000     0.554900000000    -1.025      
Si       Si4+   0.184150000000     0.407650000000     0.500000000000     2.05       
O        O2-    0.171450000000     0.445100000000     0.945100000000    -1.025      
Si       Si4+   0.092350000000     0.184150000000     0.500000000000     2.05       
O        O2-    0.054900000000     0.171450000000     0.945100000000    -1.025      
Si       Si4+   0.315850000000     0.092350000000     0.500000000000     2.05       
O        O2-    0.328550000000     0.054900000000     0.945100000000    -1.025      
Si       Si4+   0.407650000000     0.315850000000     0.500000000000     2.05       
O        O2-    0.445100000000     0.328550000000     0.945100000000    -1.025      
Si       Si4+   0.000000000000     0.184150000000     0.592350000000     2.05       
O        O2-    0.000000000000     0.250000000000     0.608950000000    -1.025      
O        O2-    0.000000000000     0.146950000000     0.646950000000    -1.025      
O        O2-    0.054900000000     0.171450000000     0.554900000000    -1.025      
Si       Si4+   0.315850000000     0.000000000000     0.592350000000     2.05       
O        O2-    0.250000000000     0.000000000000     0.608950000000    -1.025      
O        O2-    0.353050000000     0.000000000000     0.646950000000    -1.025      
O        O2-    0.328550000000     0.054900000000     0.554900000000    -1.025      
Si       Si4+   0.000000000000     0.315850000000     0.592350000000     2.05       
O        O2-    0.000000000000     0.353050000000     0.646950000000    -1.025      
O        O2-    0.445100000000     0.328550000000     0.554900000000    -1.025      
Si       Si4+   0.184150000000     0.000000000000     0.592350000000     2.05       
O        O2-    0.146950000000     0.000000000000     0.646950000000    -1.025      
O        O2-    0.171450000000     0.445100000000     0.554900000000    -1.025      
Si       Si4+   0.000000000000     0.315850000000     0.907650000000     2.05       
O        O2-    0.000000000000     0.250000000000     0.891050000000    -1.025      
O        O2-    0.000000000000     0.353050000000     0.853050000000    -1.025      
O        O2-    0.054900000000     0.328550000000     0.945100000000    -1.025      
Si       Si4+   0.184150000000     0.000000000000     0.907650000000     2.05       
O        O2-    0.250000000000     0.000000000000     0.891050000000    -1.025      
O        O2-    0.146950000000     0.000000000000     0.853050000000    -1.025      
O        O2-    0.171450000000     0.054900000000     0.945100000000    -1.025      
Si       Si4+   0.000000000000     0.184150000000     0.907650000000     2.05       
O        O2-    0.000000000000     0.146950000000     0.853050000000    -1.025      
O        O2-    0.445100000000     0.171450000000     0.945100000000    -1.025      
Si       Si4+   0.315850000000     0.000000000000     0.907650000000     2.05       
O        O2-    0.353050000000     0.000000000000     0.853050000000    -1.025      
O        O2-    0.328550000000     0.445100000000     0.945100000000    -1.025      
Si       Si4+   0.092350000000     0.000000000000     0.684150000000     2.05       
O        O2-    0.108950000000     0.000000000000     0.750000000000    -1.025      
O        O2-    0.054900000000     0.054900000000     0.671450000000    -1.025      
Si       Si4+   0.092350000000     0.000000000000     0.815850000000     2.05       
O        O2-    0.054900000000     0.445100000000     0.828550000000    -1.025      
Si       Si4+   0.000000000000     0.092350000000     0.815850000000     2.05       
O        O2-    0.000000000000     0.108950000000     0.750000000000    -1.025      
O        O2-    0.054900000000     0.054900000000     0.828550000000    -1.025      
Si       Si4+   0.407650000000     0.000000000000     0.815850000000     2.05       
O        O2-    0.391050000000     0.000000000000     0.750000000000    -1.025      
O        O2-    0.445100000000     0.054900000000     0.828550000000    -1.025      
Si       Si4+   0.000000000000     0.407650000000     0.815850000000     2.05       
O        O2-    0.000000000000     0.391050000000     0.750000000000    -1.025      
O        O2-    0.445100000000     0.445100000000     0.828550000000    -1.025      
Si       Si4+   0.407650000000     0.000000000000     0.684150000000     2.05       
O        O2-    0.445100000000     0.445100000000     0.671450000000    -1.025      
Si       Si4+   0.000000000000     0.407650000000     0.684150000000     2.05       
O        O2-    0.054900000000     0.445100000000     0.671450000000    -1.025      
Si       Si4+   0.000000000000     0.092350000000     0.684150000000     2.05       
O        O2-    0.445100000000     0.054900000000     0.671450000000    -1.025      
Si       Si4+   0.184150000000     0.592350000000     0.000000000000     2.05       
O        O2-    0.250000000000     0.608950000000     0.000000000000    -1.025      
O        O2-    0.146950000000     0.646950000000     0.000000000000    -1.025      
O        O2-    0.171450000000     0.554900000000     0.054900000000    -1.025      
Si       Si4+   0.407650000000     0.684150000000     0.000000000000     2.05       
O        O2-    0.391050000000     0.750000000000     0.000000000000    -1.025      
O        O2-    0.353050000000     0.646950000000     0.000000000000    -1.025      
O        O2-    0.445100000000     0.671450000000     0.054900000000    -1.025      
Si       Si4+   0.315850000000     0.907650000000     0.000000000000     2.05       
O        O2-    0.250000000000     0.891050000000     0.000000000000    -1.025      
O        O2-    0.353050000000     0.853050000000     0.000000000000    -1.025      
O        O2-    0.328550000000     0.945100000000     0.054900000000    -1.025      
Si       Si4+   0.092350000000     0.815850000000     0.000000000000     2.05       
O        O2-    0.108950000000     0.750000000000     0.000000000000    -1.025      
O        O2-    0.146950000000     0.853050000000     0.000000000000    -1.025      
O        O2-    0.054900000000     0.828550000000     0.054900000000    -1.025      
Si       Si4+   0.184150000000     0.907650000000     0.000000000000     2.05       
O        O2-    0.171450000000     0.945100000000     0.445100000000    -1.025      
Si       Si4+   0.092350000000     0.684150000000     0.000000000000     2.05       
O        O2-    0.054900000000     0.671450000000     0.445100000000    -1.025      
Si       Si4+   0.315850000000     0.592350000000     0.000000000000     2.05       
O        O2-    0.328550000000     0.554900000000     0.445100000000    -1.025      
Si       Si4+   0.407650000000     0.815850000000     0.000000000000     2.05       
O        O2-    0.445100000000     0.828550000000     0.445100000000    -1.025      
Si       Si4+   0.000000000000     0.684150000000     0.092350000000     2.05       
O        O2-    0.000000000000     0.750000000000     0.108950000000    -1.025      
O        O2-    0.000000000000     0.646950000000     0.146950000000    -1.025      
O        O2-    0.054900000000     0.671450000000     0.054900000000    -1.025      
Si       Si4+   0.315850000000     0.500000000000     0.092350000000     2.05       
O        O2-    0.250000000000     0.500000000000     0.108950000000    -1.025      
O        O2-    0.353050000000     0.500000000000     0.146950000000    -1.025      
O        O2-    0.328550000000     0.554900000000     0.054900000000    -1.025      
Si       Si4+   0.000000000000     0.815850000000     0.092350000000     2.05       
O        O2-    0.000000000000     0.853050000000     0.146950000000    -1.025      
O        O2-    0.445100000000     0.828550000000     0.054900000000    -1.025      
Si       Si4+   0.184150000000     0.500000000000     0.092350000000     2.05       
O        O2-    0.146950000000     0.500000000000     0.146950000000    -1.025      
O        O2-    0.171450000000     0.945100000000     0.054900000000    -1.025      
Si       Si4+   0.000000000000     0.815850000000     0.407650000000     2.05       
O        O2-    0.000000000000     0.750000000000     0.391050000000    -1.025      
O        O2-    0.000000000000     0.853050000000     0.353050000000    -1.025      
O        O2-    0.054900000000     0.828550000000     0.445100000000    -1.025      
Si       Si4+   0.184150000000     0.500000000000     0.407650000000     2.05       
O        O2-    0.250000000000     0.500000000000     0.391050000000    -1.025      
O        O2-    0.146950000000     0.500000000000     0.353050000000    -1.025      
O        O2-    0.171450000000     0.554900000000     0.445100000000    -1.025      
Si       Si4+   0.000000000000     0.684150000000     0.407650000000     2.05       
O        O2-    0.000000000000     0.646950000000     0.353050000000    -1.025      
O        O2-    0.445100000000     0.671450000000     0.445100000000    -1.025      
Si       Si4+   0.315850000000     0.500000000000     0.407650000000     2.05       
O        O2-    0.353050000000     0.500000000000     0.353050000000    -1.025      
O        O2-    0.328550000000     0.945100000000     0.445100000000    -1.025      
Si       Si4+   0.092350000000     0.500000000000     0.184150000000     2.05       
O        O2-    0.108950000000     0.500000000000     0.250000000000    -1.025      
O        O2-    0.054900000000     0.554900000000     0.171450000000    -1.025      
Si       Si4+   0.092350000000     0.500000000000     0.315850000000     2.05       
O        O2-    0.054900000000     0.945100000000     0.328550000000    -1.025      
Si       Si4+   0.000000000000     0.592350000000     0.315850000000     2.05       
O        O2-    0.000000000000     0.608950000000     0.250000000000    -1.025      
O        O2-    0.054900000000     0.554900000000     0.328550000000    -1.025      
Si       Si4+   0.407650000000     0.500000000000     0.315850000000     2.05       
O        O2-    0.391050000000     0.500000000000     0.250000000000    -1.025      
O        O2-    0.445100000000     0.554900000000     0.328550000000    -1.025      
Si       Si4+   0.000000000000     0.907650000000     0.315850000000     2.05       
O        O2-    0.000000000000     0.891050000000     0.250000000000    -1.025      
O        O2-    0.445100000000     0.945100000000     0.328550000000    -1.025      
Si       Si4+   0.407650000000     0.500000000000     0.184150000000     2.05       
O        O2-    0.445100000000     0.945100000000     0.171450000000    -1.025      
Si       Si4+   0.000000000000     0.907650000000     0.184150000000     2.05       
O        O2-    0.054900000000     0.945100000000     0.171450000000    -1.025      
Si       Si4+   0.000000000000     0.592350000000     0.184150000000     2.05       
O        O2-    0.445100000000     0.554900000000     0.171450000000    -1.025      
Si       Si4+   0.184150000000     0.592350000000     0.500000000000     2.05       
O        O2-    0.250000000000     0.608950000000     0.500000000000    -1.025      
O        O2-    0.146950000000     0.646950000000     0.500000000000    -1.025      
O        O2-    0.171450000000     0.554900000000     0.554900000000    -1.025      
Si       Si4+   0.407650000000     0.684150000000     0.500000000000     2.05       
O        O2-    0.391050000000     0.750000000000     0.500000000000    -1.025      
O        O2-    0.353050000000     0.646950000000     0.500000000000    -1.025      
O        O2-    0.445100000000     0.671450000000     0.554900000000    -1.025      
Si       Si4+   0.315850000000     0.907650000000     0.500000000000     2.05       
O        O2-    0.250000000000     0.891050000000     0.500000000000    -1.025      
O        O2-    0.353050000000     0.853050000000     0.500000000000    -1.025      
O        O2-    0.328550000000     0.945100000000     0.554900000000    -1.025      
Si       Si4+   0.092350000000     0.815850000000     0.500000000000     2.05       
O        O2-    0.108950000000     0.750000000000     0.500000000000    -1.025      
O        O2-    0.146950000000     0.853050000000     0.500000000000    -1.025      
O        O2-    0.054900000000     0.828550000000     0.554900000000    -1.025      
Si       Si4+   0.184150000000     0.907650000000     0.500000000000     2.05       
O        O2-    0.171450000000     0.945100000000     0.945100000000    -1.025      
Si       Si4+   0.092350000000     0.684150000000     0.500000000000     2.05       
O        O2-    0.054900000000     0.671450000000     0.945100000000    -1.025      
Si       Si4+   0.315850000000     0.592350000000     0.500000000000     2.05       
O        O2-    0.328550000000     0.554900000000     0.945100000000    -1.025      
Si       Si4+   0.407650000000     0.815850000000     0.500000000000     2.05       
O        O2-    0.445100000000     0.828550000000     0.945100000000    -1.025      
Si       Si4+   0.000000000000     0.684150000000     0.592350000000     2.05       
O        O2-    0.000000000000     0.750000000000     0.608950000000    -1.025      
O        O2-    0.000000000000     0.646950000000     0.646950000000    -1.025      
O        O2-    0.054900000000     0.671450000000     0.554900000000    -1.025      
Si       Si4+   0.315850000000     0.500000000000     0.592350000000     2.05       
O        O2-    0.250000000000     0.500000000000     0.608950000000    -1.025      
O        O2-    0.353050000000     0.500000000000     0.646950000000    -1.025      
O        O2-    0.328550000000     0.554900000000     0.554900000000    -1.025      
Si       Si4+   0.000000000000     0.815850000000     0.592350000000     2.05       
O        O2-    0.000000000000     0.853050000000     0.646950000000    -1.025      
O        O2-    0.445100000000     0.828550000000     0.554900000000    -1.025      
Si       Si4+   0.184150000000     0.500000000000     0.592350000000     2.05       
O        O2-    0.146950000000     0.500000000000     0.646950000000    -1.025      
O        O2-    0.171450000000     0.945100000000     0.554900000000    -1.025      
Si       Si4+   0.000000000000     0.815850000000     0.907650000000     2.05       
O        O2-    0.000000000000     0.750000000000     0.891050000000    -1.025      
O        O2-    0.000000000000     0.853050000000     0.853050000000    -1.025      
O        O2-    0.054900000000     0.828550000000     0.945100000000    -1.025      
Si       Si4+   0.184150000000     0.500000000000     0.907650000000     2.05       
O        O2-    0.250000000000     0.500000000000     0.891050000000    -1.025      
O        O2-    0.146950000000     0.500000000000     0.853050000000    -1.025      
O        O2-    0.171450000000     0.554900000000     0.945100000000    -1.025      
Si       Si4+   0.000000000000     0.684150000000     0.907650000000     2.05       
O        O2-    0.000000000000     0.646950000000     0.853050000000    -1.025      
O        O2-    0.445100000000     0.671450000000     0.945100000000    -1.025      
Si       Si4+   0.315850000000     0.500000000000     0.907650000000     2.05       
O        O2-    0.353050000000     0.500000000000     0.853050000000    -1.025      
O        O2-    0.328550000000     0.945100000000     0.945100000000    -1.025      
Si       Si4+   0.092350000000     0.500000000000     0.684150000000     2.05       
O        O2-    0.108950000000     0.500000000000     0.750000000000    -1.025      
O        O2-    0.054900000000     0.554900000000     0.671450000000    -1.025      
Si       Si4+   0.092350000000     0.500000000000     0.815850000000     2.05       
O        O2-    0.054900000000     0.945100000000     0.828550000000    -1.025      
Si       Si4+   0.000000000000     0.592350000000     0.815850000000     2.05       
O        O2-    0.000000000000     0.608950000000     0.750000000000    -1.025      
O        O2-    0.054900000000     0.554900000000     0.828550000000    -1.025      
Si       Si4+   0.407650000000     0.500000000000     0.815850000000     2.05       
O        O2-    0.391050000000     0.500000000000     0.750000000000    -1.025      
O        O2-    0.445100000000     0.554900000000     0.828550000000    -1.025      
Si       Si4+   0.000000000000     0.907650000000     0.815850000000     2.05       
O        O2-    0.000000000000     0.891050000000     0.750000000000    -1.025      
O        O2-    0.445100000000     0.945100000000     0.828550000000    -1.025      
Si       Si4+   0.407650000000     0.500000000000     0.684150000000     2.05       
O        O2-    0.445100000000     0.945100000000     0.671450000000    -1.025      
Si       Si4+   0.000000000000     0.907650000000     0.684150000000     2.05       
O        O2-    0.054900000000     0.945100000000     0.671450000000    -1.025      
Si       Si4+   0.000000000000     0.592350000000     0.684150000000     2.05       
O        O2-    0.445100000000     0.554900000000     0.671450000000    -1.025      
Si       Si4+   0.684150000000     0.092350000000     0.000000000000     2.05       
O        O2-    0.750000000000     0.108950000000     0.000000000000    -1.025      
O        O2-    0.646950000000     0.146950000000     0.000000000000    -1.025      
O        O2-    0.671450000000     0.054900000000     0.054900000000    -1.025      
Si       Si4+   0.907650000000     0.184150000000     0.000000000000     2.05       
O        O2-    0.891050000000     0.250000000000     0.000000000000    -1.025      
O        O2-    0.853050000000     0.146950000000     0.000000000000    -1.025      
O        O2-    0.945100000000     0.171450000000     0.054900000000    -1.025      
Si       Si4+   0.815850000000     0.407650000000     0.000000000000     2.05       
O        O2-    0.750000000000     0.391050000000     0.000000000000    -1.025      
O        O2-    0.853050000000     0.353050000000     0.000000000000    -1.025      
O        O2-    0.828550000000     0.445100000000     0.054900000000    -1.025      
Si       Si4+   0.592350000000     0.315850000000     0.000000000000     2.05       
O        O2-    0.608950000000     0.250000000000     0.000000000000    -1.025      
O        O2-    0.646950000000     0.353050000000     0.000000000000    -1.025      
O        O2-    0.554900000000     0.328550000000     0.054900000000    -1.025      
Si       Si4+   0.684150000000     0.407650000000     0.000000000000     2.05       
O        O2-    0.671450000000     0.445100000000     0.445100000000    -1.025      
Si       Si4+   0.592350000000     0.184150000000     0.000000000000     2.05       
O        O2-    0.554900000000     0.171450000000     0.445100000000    -1.025      
Si       Si4+   0.815850000000     0.092350000000     0.000000000000     2.05       
O        O2-    0.828550000000     0.054900000000     0.445100000000    -1.025      
Si       Si4+   0.907650000000     0.315850000000     0.000000000000     2.05       
O        O2-    0.945100000000     0.328550000000     0.445100000000    -1.025      
Si       Si4+   0.500000000000     0.184150000000     0.092350000000     2.05       
O        O2-    0.500000000000     0.250000000000     0.108950000000    -1.025      
O        O2-    0.500000000000     0.146950000000     0.146950000000    -1.025      
O        O2-    0.554900000000     0.171450000000     0.054900000000    -1.025      
Si       Si4+   0.815850000000     0.000000000000     0.092350000000     2.05       
O        O2-    0.750000000000     0.000000000000     0.108950000000    -1.025      
O        O2-    0.853050000000     0.000000000000     0.146950000000    -1.025      
O        O2-    0.828550000000     0.054900000000     0.054900000000    -1.025      
Si       Si4+   0.500000000000     0.315850000000     0.092350000000     2.05       
O        O2-    0.500000000000     0.353050000000     0.146950000000    -1.025      
O        O2-    0.945100000000     0.328550000000     0.054900000000    -1.025      
Si       Si4+   0.684150000000     0.000000000000     0.092350000000     2.05       
O        O2-    0.646950000000     0.000000000000     0.146950000000    -1.025      
O        O2-    0.671450000000     0.445100000000     0.054900000000    -1.025      
Si       Si4+   0.500000000000     0.315850000000     0.407650000000     2.05       
O        O2-    0.500000000000     0.250000000000     0.391050000000    -1.025      
O        O2-    0.500000000000     0.353050000000     0.353050000000    -1.025      
O        O2-    0.554900000000     0.328550000000     0.445100000000    -1.025      
Si       Si4+   0.684150000000     0.000000000000     0.407650000000     2.05       
O        O2-    0.750000000000     0.000000000000     0.391050000000    -1.025      
O        O2-    0.646950000000     0.000000000000     0.353050000000    -1.025      
O        O2-    0.671450000000     0.054900000000     0.445100000000    -1.025      
Si       Si4+   0.500000000000     0.184150000000     0.407650000000     2.05       
O        O2-    0.500000000000     0.146950000000     0.353050000000    -1.025      
O        O2-    0.945100000000     0.171450000000     0.445100000000    -1.025      
Si       Si4+   0.815850000000     0.000000000000     0.407650000000     2.05       
O        O2-    0.853050000000     0.000000000000     0.353050000000    -1.025      
O        O2-    0.828550000000     0.445100000000     0.445100000000    -1.025      
Si       Si4+   0.592350000000     0.000000000000     0.184150000000     2.05       
O        O2-    0.608950000000     0.000000000000     0.250000000000    -1.025      
O        O2-    0.554900000000     0.054900000000     0.171450000000    -1.025      
Si       Si4+   0.592350000000     0.000000000000     0.315850000000     2.05       
O        O2-    0.554900000000     0.445100000000     0.328550000000    -1.025      
Si       Si4+   0.500000000000     0.092350000000     0.315850000000     2.05       
O        O2-    0.500000000000     0.108950000000     0.250000000000    -1.025      
O        O2-    0.554900000000     0.054900000000     0.328550000000    -1.025      
Si       Si4+   0.907650000000     0.000000000000     0.315850000000     2.05       
O        O2-    0.891050000000     0.000000000000     0.250000000000    -1.025      
O        O2-    0.945100000000     0.054900000000     0.328550000000    -1.025      
Si       Si4+   0.500000000000     0.407650000000     0.315850000000     2.05       
O        O2-    0.500000000000     0.391050000000     0.250000000000    -1.025      
O        O2-    0.945100000000     0.445100000000     0.328550000000    -1.025      
Si       Si4+   0.907650000000     0.000000000000     0.184150000000     2.05       
O        O2-    0.945100000000     0.445100000000     0.171450000000    -1.025      
Si       Si4+   0.500000000000     0.407650000000     0.184150000000     2.05       
O        O2-    0.554900000000     0.445100000000     0.171450000000    -1.025      
Si       Si4+   0.500000000000     0.092350000000     0.184150000000     2.05       
O        O2-    0.945100000000     0.054900000000     0.171450000000    -1.025      
Si       Si4+   0.684150000000     0.092350000000     0.500000000000     2.05       
O        O2-    0.750000000000     0.108950000000     0.500000000000    -1.025      
O        O2-    0.646950000000     0.146950000000     0.500000000000    -1.025      
O        O2-    0.671450000000     0.054900000000     0.554900000000    -1.025      
Si       Si4+   0.907650000000     0.184150000000     0.500000000000     2.05       
O        O2-    0.891050000000     0.250000000000     0.500000000000    -1.025      
O        O2-    0.853050000000     0.146950000000     0.500000000000    -1.025      
O        O2-    0.945100000000     0.171450000000     0.554900000000    -1.025      
Si       Si4+   0.815850000000     0.407650000000     0.500000000000     2.05       
O        O2-    0.750000000000     0.391050000000     0.500000000000    -1.025      
O        O2-    0.853050000000     0.353050000000     0.500000000000    -1.025      
O        O2-    0.828550000000     0.445100000000     0.554900000000    -1.025      
Si       Si4+   0.592350000000     0.315850000000     0.500000000000     2.05       
O        O2-    0.608950000000     0.250000000000     0.500000000000    -1.025      
O        O2-    0.646950000000     0.353050000000     0.500000000000    -1.025      
O        O2-    0.554900000000     0.328550000000     0.554900000000    -1.025      
Si       Si4+   0.684150000000     0.407650000000     0.500000000000     2.05       
O        O2-    0.671450000000     0.445100000000     0.945100000000    -1.025      
Si       Si4+   0.592350000000     0.184150000000     0.500000000000     2.05       
O        O2-    0.554900000000     0.171450000000     0.945100000000    -1.025      
Si       Si4+   0.815850000000     0.092350000000     0.500000000000     2.05       
O        O2-    0.828550000000     0.054900000000     0.945100000000    -1.025      
Si       Si4+   0.907650000000     0.315850000000     0.500000000000     2.05       
O        O2-    0.945100000000     0.328550000000     0.945100000000    -1.025      
Si       Si4+   0.500000000000     0.184150000000     0.592350000000     2.05       
O        O2-    0.500000000000     0.250000000000     0.608950000000    -1.025      
O        O2-    0.500000000000     0.146950000000     0.646950000000    -1.025      
O        O2-    0.554900000000     0.171450000000     0.554900000000    -1.025      
Si       Si4+   0.815850000000     0.000000000000     0.592350000000     2.05       
O        O2-    0.750000000000     0.000000000000     0.608950000000    -1.025      
O        O2-    0.853050000000     0.000000000000     0.646950000000    -1.025      
O        O2-    0.828550000000     0.054900000000     0.554900000000    -1.025      
Si       Si4+   0.500000000000     0.315850000000     0.592350000000     2.05       
O        O2-    0.500000000000     0.353050000000     0.646950000000    -1.025      
O        O2-    0.945100000000     0.328550000000     0.554900000000    -1.025      
Si       Si4+   0.684150000000     0.000000000000     0.592350000000     2.05       
O        O2-    0.646950000000     0.000000000000     0.646950000000    -1.025      
O        O2-    0.671450000000     0.445100000000     0.554900000000    -1.025      
Si       Si4+   0.500000000000     0.315850000000     0.907650000000     2.05       
O        O2-    0.500000000000     0.250000000000     0.891050000000    -1.025      
O        O2-    0.500000000000     0.353050000000     0.853050000000    -1.025      
O        O2-    0.554900000000     0.328550000000     0.945100000000    -1.025      
Si       Si4+   0.684150000000     0.000000000000     0.907650000000     2.05       
O        O2-    0.750000000000     0.000000000000     0.891050000000    -1.025      
O        O2-    0.646950000000     0.000000000000     0.853050000000    -1.025      
O        O2-    0.671450000000     0.054900000000     0.945100000000    -1.025      
Si       Si4+   0.500000000000     0.184150000000     0.907650000000     2.05       
O        O2-    0.500000000000     0.146950000000     0.853050000000    -1.025      
O        O2-    0.945100000000     0.171450000000     0.945100000000    -1.025      
Si       Si4+   0.815850000000     0.000000000000     0.907650000000     2.05       
O        O2-    0.853050000000     0.000000000000     0.853050000000    -1.025      
O        O2-    0.828550000000     0.445100000000     0.945100000000    -1.025      
Si       Si4+   0.592350000000     0.000000000000     0.684150000000     2.05       
O        O2-    0.608950000000     0.000000000000     0.750000000000    -1.025      
O        O2-    0.554900000000     0.054900000000     0.671450000000    -1.025      
Si       Si4+   0.592350000000     0.000000000000     0.815850000000     2.05       
O        O2-    0.554900000000     0.445100000000     0.828550000000    -1.025      
Si       Si4+   0.500000000000     0.092350000000     0.815850000000     2.05       
O        O2-    0.500000000000     0.108950000000     0.750000000000    -1.025      
O        O2-    0.554900000000     0.054900000000     0.828550000000    -1.025      
Si       Si4+   0.907650000000     0.000000000000     0.815850000000     2.05       
O        O2-    0.891050000000     0.000000000000     0.750000000000    -1.025      
O        O2-    0.945100000000     0.054900000000     0.828550000000    -1.025      
Si       Si4+   0.500000000000     0.407650000000     0.815850000000     2.05       
O        O2-    0.500000000000     0.391050000000     0.750000000000    -1.025      
O        O2-    0.945100000000     0.445100000000     0.828550000000    -1.025      
Si       Si4+   0.907650000000     0.000000000000     0.684150000000     2.05       
O        O2-    0.945100000000     0.445100000000     0.671450000000    -1.025      
Si       Si4+   0.500000000000     0.407650000000     0.684150000000     2.05       
O        O2-    0.554900000000     0.445100000000     0.671450000000    -1.025      
Si       Si4+   0.500000000000     0.092350000000     0.684150000000     2.05       
O        O2-    0.945100000000     0.054900000000     0.671450000000    -1.025      
Si       Si4+   0.684150000000     0.592350000000     0.000000000000     2.05       
O        O2-    0.750000000000     0.608950000000     0.000000000000    -1.025      
O        O2-    0.646950000000     0.646950000000     0.000000000000    -1.025      
O        O2-    0.671450000000     0.554900000000     0.054900000000    -1.025      
Si       Si4+   0.907650000000     0.684150000000     0.000000000000     2.05       
O        O2-    0.891050000000     0.750000000000     0.000000000000    -1.025      
O        O2-    0.853050000000     0.646950000000     0.000000000000    -1.025      
O        O2-    0.945100000000     0.671450000000     0.054900000000    -1.025      
Si       Si4+   0.815850000000     0.907650000000     0.000000000000     2.05       
O        O2-    0.750000000000     0.891050000000     0.000000000000    -1.025      
O        O2-    0.853050000000     0.853050000000     0.000000000000    -1.025      
O        O2-    0.828550000000     0.945100000000     0.054900000000    -1.025      
Si       Si4+   0.592350000000     0.815850000000     0.000000000000     2.05       
O        O2-    0.608950000000     0.750000000000     0.000000000000    -1.025      
O        O2-    0.646950000000     0.853050000000     0.000000000000    -1.025      
O        O2-    0.554900000000     0.828550000000     0.054900000000    -1.025      
Si       Si4+   0.684150000000     0.907650000000     0.000000000000     2.05       
O        O2-    0.671450000000     0.945100000000     0.445100000000    -1.025      
Si       Si4+   0.592350000000     0.684150000000     0.000000000000     2.05       
O        O2-    0.554900000000     0.671450000000     0.445100000000    -1.025      
Si       Si4+   0.815850000000     0.592350000000     0.000000000000     2.05       
O        O2-    0.828550000000     0.554900000000     0.445100000000    -1.025      
Si       Si4+   0.907650000000     0.815850000000     0.000000000000     2.05       
O        O2-    0.945100000000     0.828550000000     0.445100000000    -1.025      
Si       Si4+   0.500000000000     0.684150000000     0.092350000000     2.05       
O        O2-    0.500000000000     0.750000000000     0.108950000000    -1.025      
O        O2-    0.500000000000     0.646950000000     0.146950000000    -1.025      
O        O2-    0.554900000000     0.671450000000     0.054900000000    -1.025      
Si       Si4+   0.815850000000     0.500000000000     0.092350000000     2.05       
O        O2-    0.750000000000     0.500000000000     0.108950000000    -1.025      
O        O2-    0.853050000000     0.500000000000     0.146950000000    -1.025      
O        O2-    0.828550000000     0.554900000000     0.054900000000    -1.025      
Si       Si4+   0.500000000000     0.815850000000     0.092350000000     2.05       
O        O2-    0.500000000000     0.853050000000     0.146950000000    -1.025      
O        O2-    0.945100000000     0.828550000000     0.054900000000    -1.025      
Si       Si4+   0.684150000000     0.500000000000     0.092350000000     2.05       
O        O2-    0.646950000000     0.500000000000     0.146950000000    -1.025      
O        O2-    0.671450000000     0.945100000000     0.054900000000    -1.025      
Si       Si4+   0.500000000000     0.815850000000     0.407650000000     2.05       
O        O2-    0.500000000000     0.750000000000     0.391050000000    -1.025      
O        O2-    0.500000000000     0.853050000000     0.353050000000    -1.025      
O        O2-    0.554900000000     0.828550000000     0.445100000000    -1.025      
Si       Si4+   0.684150000000     0.500000000000     0.407650000000     2.05       
O        O2-    0.750000000000     0.500000000000     0.391050000000    -1.025      
O        O2-    0.646950000000     0.500000000000     0.353050000000    -1.025      
O        O2-    0.671450000000     0.554900000000     0.445100000000    -1.025      
Si       Si4+   0.500000000000     0.684150000000     0.407650000000     2.05       
O        O2-    0.500000000000     0.646950000000     0.353050000000    -1.025      
O        O2-    0.945100000000     0.671450000000     0.445100000000    -1.025      
Si       Si4+   0.815850000000     0.500000000000     0.407650000000     2.05       
O        O2-    0.853050000000     0.500000000000     0.353050000000    -1.025      
O        O2-    0.828550000000     0.945100000000     0.445100000000    -1.025      
Si       Si4+   0.592350000000     0.500000000000     0.184150000000     2.05       
O        O2-    0.608950000000     0.500000000000     0.250000000000    -1.025      
O        O2-    0.554900000000     0.554900000000     0.171450000000    -1.025      
Si       Si4+   0.592350000000     0.500000000000     0.315850000000     2.05       
O        O2-    0.554900000000     0.945100000000     0.328550000000    -1.025      
Si       Si4+   0.500000000000     0.592350000000     0.315850000000     2.05       
O        O2-    0.500000000000     0.608950000000     0.250000000000    -1.025      
O        O2-    0.554900000000     0.554900000000     0.328550000000    -1.025      
Si       Si4+   0.907650000000     0.500000000000     0.315850000000     2.05       
O        O2-    0.891050000000     0.500000000000     0.250000000000    -1.025      
O        O2-    0.945100000000     0.554900000000     0.328550000000    -1.025      
Si       Si4+   0.500000000000     0.907650000000     0.315850000000     2.05       
O        O2-    0.500000000000     0.891050000000     0.250000000000    -1.025      
O        O2-    0.945100000000     0.945100000000     0.328550000000    -1.025      
Si       Si4+   0.907650000000     0.500000000000     0.184150000000     2.05       
O        O2-    0.945100000000     0.945100000000     0.171450000000    -1.025      
Si       Si4+   0.500000000000     0.907650000000     0.184150000000     2.05       
O        O2-    0.554900000000     0.945100000000     0.171450000000    -1.025      
Si       Si4+   0.500000000000     0.592350000000     0.184150000000     2.05       
O        O2-    0.945100000000     0.554900000000     0.171450000000    -1.025      
Si       Si4+   0.684150000000     0.592350000000     0.500000000000     2.05       
O        O2-    0.750000000000     0.608950000000     0.500000000000    -1.025      
O        O2-    0.646950000000     0.646950000000     0.500000000000    -1.025      
O        O2-    0.671450000000     0.554900000000     0.554900000000    -1.025      
Si       Si4+   0.907650000000     0.684150000000     0.500000000000     2.05       
O        O2-    0.891050000000     0.750000000000     0.500000000000    -1.025      
O        O2-    0.853050000000     0.646950000000     0.500000000000    -1.025      
O        O2-    0.945100000000     0.671450000000     0.554900000000    -1.025      
Si       Si4+   0.815850000000     0.907650000000     0.500000000000     2.05       
O        O2-    0.750000000000     0.891050000000     0.500000000000    -1.025      
O        O2-    0.853050000000     0.853050000000     0.500000000000    -1.025      
O        O2-    0.828550000000     0.945100000000     0.554900000000    -1.025      
Si       Si4+   0.592350000000     0.815850000000     0.500000000000     2.05       
O        O2-    0.608950000000     0.750000000000     0.500000000000    -1.025      
O        O2-    0.646950000000     0.853050000000     0.500000000000    -1.025      
O        O2-    0.554900000000     0.828550000000     0.554900000000    -1.025      
Si       Si4+   0.684150000000     0.907650000000     0.500000000000     2.05       
O        O2-    0.671450000000     0.945100000000     0.945100000000    -1.025      
Si       Si4+   0.592350000000     0.684150000000     0.500000000000     2.05       
O        O2-    0.554900000000     0.671450000000     0.945100000000    -1.025      
Si       Si4+   0.815850000000     0.592350000000     0.500000000000     2.05       
O        O2-    0.828550000000     0.554900000000     0.945100000000    -1.025      
Si       Si4+   0.907650000000     0.815850000000     0.500000000000     2.05       
O        O2-    0.945100000000     0.828550000000     0.945100000000    -1.025      
Si       Si4+   0.500000000000     0.684150000000     0.592350000000     2.05       
O        O2-    0.500000000000     0.750000000000     0.608950000000    -1.025      
O        O2-    0.500000000000     0.646950000000     0.646950000000    -1.025      
O        O2-    0.554900000000     0.671450000000     0.554900000000    -1.025      
Si       Si4+   0.815850000000     0.500000000000     0.592350000000     2.05       
O        O2-    0.750000000000     0.500000000000     0.608950000000    -1.025      
O        O2-    0.853050000000     0.500000000000     0.646950000000    -1.025      
O        O2-    0.828550000000     0.554900000000     0.554900000000    -1.025      
Si       Si4+   0.500000000000     0.815850000000     0.592350000000     2.05       
O        O2-    0.500000000000     0.853050000000     0.646950000000    -1.025      
O        O2-    0.945100000000     0.828550000000     0.554900000000    -1.025      
Si       Si4+   0.684150000000     0.500000000000     0.592350000000     2.05       
O        O2-    0.646950000000     0.500000000000     0.646950000000    -1.025      
O        O2-    0.671450000000     0.945100000000     0.554900000000    -1.025      
Si       Si4+   0.500000000000     0.815850000000     0.907650000000     2.05       
O        O2-    0.500000000000     0.750000000000     0.891050000000    -1.025      
O        O2-    0.500000000000     0.853050000000     0.853050000000    -1.025      
O        O2-    0.554900000000     0.828550000000     0.945100000000    -1.025      
Si       Si4+   0.684150000000     0.500000000000     0.907650000000     2.05       
O        O2-    0.750000000000     0.500000000000     0.891050000000    -1.025      
O        O2-    0.646950000000     0.500000000000     0.853050000000    -1.025      
O        O2-    0.671450000000     0.554900000000     0.945100000000    -1.025      
Si       Si4+   0.500000000000     0.684150000000     0.907650000000     2.05       
O        O2-    0.500000000000     0.646950000000     0.853050000000    -1.025      
O        O2-    0.945100000000     0.671450000000     0.945100000000    -1.025      
Si       Si4+   0.815850000000     0.500000000000     0.907650000000     2.05       
O        O2-    0.853050000000     0.500000000000     0.853050000000    -1.025      
O        O2-    0.828550000000     0.945100000000     0.945100000000    -1.025      
Si       Si4+   0.592350000000     0.500000000000     0.684150000000     2.05       
O        O2-    0.608950000000     0.500000000000     0.750000000000    -1.025      
O        O2-    0.554900000000     0.554900000000     0.671450000000    -1.025      
Si       Si4+   0.592350000000     0.500000000000     0.815850000000     2.05       
O        O2-    0.554900000000     0.945100000000     0.828550000000    -1.025      
Si       Si4+   0.500000000000     0.592350000000     0.815850000000     2.05       
O        O2-    0.500000000000     0.608950000000     0.750000000000    -1.025      
O        O2-    0.554900000000     0.554900000000     0.828550000000    -1.025      
Si       Si4+   0.907650000000     0.500000000000     0.815850000000     2.05       
O        O2-    0.891050000000     0.500000000000     0.750000000000    -1.025      
O        O2-    0.945100000000     0.554900000000     0.828550000000    -1.025      
Si       Si4+   0.500000000000     0.907650000000     0.815850000000     2.05       
O        O2-    0.500000000000     0.891050000000     0.750000000000    -1.025      
O        O2-    0.945100000000     0.945100000000     0.828550000000    -1.025      
Si       Si4+   0.907650000000     0.500000000000     0.684150000000     2.05       
O        O2-    0.945100000000     0.945100000000     0.671450000000    -1.025      
Si       Si4+   0.500000000000     0.907650000000     0.684150000000     2.05       
O        O2-    0.554900000000     0.945100000000     0.671450000000    -1.025      
Si       Si4+   0.500000000000     0.592350000000     0.684150000000     2.05       
O        O2-    0.945100000000     0.554900000000     0.671450000000    -1.025      


